LAMMPS (7 Dec 2015)
Total wall time: 0:06:32
